64
Lattice="11.66 0.0 0.0 0.0 11.66 0.0 0.0 0.0 11.66" Properties=species:S:1:pos:R:3 energy=-309.82142744 stress="0.001999523622058835 0.00013129014446295435 0.00013129014446295435 0.00013129014446295435 0.001999523622058835 0.00013129014446295435 0.00013129014446295435 0.00013129014446295435 0.001999523622058835" free_energy=-304.93266096 pbc="T T T"
In      0.000000000000000      0.000000000000000      0.000000000000000
In      2.915000000000000      0.000000000000000      2.915000000000000
In      0.000000000000000      2.915000000000000      2.915000000000000
In      2.915000000000000      2.915000000000000      0.000000000000000
In      0.000000000000000      0.000000000000000      5.830000000000000
In      2.915000000000000      0.000000000000000      8.744999999999999
In      0.000000000000000      2.915000000000000      8.744999999999999
In      2.915000000000000      2.915000000000000      5.830000000000000
In      0.000000000000000      5.830000000000000      0.000000000000000
In      2.915000000000000      5.830000000000000      2.915000000000000
In      0.000000000000000      8.744999999999999      2.915000000000000
In      2.915000000000000      8.744999999999999      0.000000000000000
In      0.000000000000000      5.830000000000000      5.830000000000000
In      2.915000000000000      5.830000000000000      8.744999999999999
In      0.000000000000000      8.744999999999999      8.744999999999999
In      2.915000000000000      8.744999999999999      5.830000000000000
In      5.830000000000000      0.000000000000000      0.000000000000000
In      8.744999999999999      0.000000000000000      2.915000000000000
In      5.830000000000000      2.915000000000000      2.915000000000000
In      8.744999999999999      2.915000000000000      0.000000000000000
In      5.830000000000000      0.000000000000000      5.830000000000000
In      8.744999999999999      0.000000000000000      8.744999999999999
In      5.830000000000000      2.915000000000000      8.744999999999999
In      8.744999999999999      2.915000000000000      5.830000000000000
In      5.830000000000000      5.830000000000000      0.000000000000000
In      8.744999999999999      5.830000000000000      2.915000000000000
In      5.830000000000000      8.744999999999999      2.915000000000000
In      8.744999999999999      8.744999999999999      0.000000000000000
In      8.744999999999999      5.830000000000000      8.744999999999999
In      5.830000000000000      8.744999999999999      8.744999999999999
In      8.744999999999999      8.744999999999999      5.830000000000000
In      5.830000000000000      5.830000000000000      5.830000000000000
P       1.457500000000000      1.457500000000000      4.372500000000000
P       4.372500000000000      1.457500000000000      1.457500000000000
P       1.457500000000000      4.372500000000000      1.457500000000000
P       4.372500000000000      4.372500000000000      4.372500000000000
P       1.457500000000000      1.457500000000000     10.202500000000001
P       4.372500000000000      1.457500000000000      7.287500000000000
P       1.457500000000000      4.372500000000000      7.287500000000000
P       4.372500000000000      4.372500000000000     10.202500000000001
P       1.457500000000000      7.287500000000000      4.372500000000000
P       4.372500000000000      7.287500000000000      1.457500000000000
P       1.457500000000000     10.202500000000001      1.457500000000000
P       4.372500000000000     10.202500000000001      4.372500000000000
P       1.457500000000000      7.287500000000000     10.202500000000001
P       4.372500000000000      7.287500000000000      7.287500000000000
P       1.457500000000000     10.202500000000001      7.287500000000000
P       4.372500000000000     10.202500000000001     10.202500000000001
P       7.287500000000000      1.457500000000000      4.372500000000000
P      10.202500000000001      1.457500000000000      1.457500000000000
P       7.287500000000000      4.372500000000000      1.457500000000000
P      10.202500000000001      4.372500000000000      4.372500000000000
P       7.287500000000000      1.457500000000000     10.202500000000001
P      10.202500000000001      1.457500000000000      7.287500000000000
P       7.287500000000000      4.372500000000000      7.287500000000000
P      10.202500000000001      4.372500000000000     10.202500000000001
P       7.287500000000000      7.287500000000000      4.372500000000000
P      10.202500000000001      7.287500000000000      1.457500000000000
P       7.287500000000000     10.202500000000001      1.457500000000000
P      10.202500000000001     10.202500000000001      4.372500000000000
P       7.287500000000000      7.287500000000000     10.202500000000001
P      10.202500000000001      7.287500000000000      7.287500000000000
P       7.287500000000000     10.202500000000001      7.287500000000000
P      10.202500000000001     10.202500000000001     10.202500000000001
