8
Lattice="5.83 0.0 0.0 0.0 5.83 0.0 0.0 0.0 5.83" Properties=species:S:1:pos:R:3:forces:R:3 energy=-38.72767843 stress="0.0003089422187129695 -0.0 -0.0 -0.0 0.0003089422187129695 0.0 -0.0 0.0 0.0003089422187129695" pbc="T T T"
In       0.00000000       0.00000000       0.00000000      -0.00000000      -0.00000000      -0.00000000
In       2.91500000       0.00000000       2.91500000      -0.00000000      -0.00000000       0.00000000
In       0.00000000       2.91500000       2.91500000      -0.00000000       0.00000000      -0.00000000
In       2.91500000       2.91500000       0.00000000      -0.00000000       0.00000000       0.00000000
P        1.45750000       1.45750000       4.37250000       0.00000000      -0.00000000      -0.00000000
P        4.37250000       1.45750000       1.45750000       0.00000000       0.00000000       0.00000000
P        1.45750000       4.37250000       1.45750000       0.00000000      -0.00000000       0.00000000
P        4.37250000       4.37250000       4.37250000       0.00000000      -0.00000000      -0.00000000
